# vtk DataFile Version 4.2
vtk output
ASCII
DATASET POLYDATA
POINTS 2602 double
4.2413630768 135.8448197 87.441444905 4.2413630768 135.91136328 87.591218974 4.2413630768 137.730207 87.388194602 
4.2413630768 143.83109579 93.356225695 4.2413630768 144.16421407 93.074768421 4.2413630768 142.95735084 92.602296674 
4.2413630768 10.949286822 57.012544713 4.2413630768 9.199886149 56.198868588 4.2413630768 11.288605804 58.499630971 
4.2413630768 9.2778337213 56.67493437 4.2413630768 64.446409701 69.64570124 4.2413630768 62.072528095 67.308041197 
4.2413630768 63.250714677 70.099878993 4.2413630768 64.592569434 67.528566682 4.2413630768 71.228588579 76.659489757 
4.2413630768 70.229349563 77.127595075 4.2413630768 71.185406528 77.43554011 4.2413630768 11.827582369 57.817209636 
4.2413630768 11.342520232 55.915127175 4.2413630768 60.71865264 66.224962572 4.2413630768 62.711955715 65.910253877 
4.2413630768 62.635227582 63.106907299 4.2413630768 58.153425056 63.337045064 4.2413630768 146.84553506 95.591137024 
4.2413630768 147.63718497 95.836754205 4.2413630768 147.55509762 95.391795574 4.2413630768 30.97516647 55.591776975 
4.2413630768 30.86229746 53.468700981 4.2413630768 28.147844074 54.390991417 4.2413630768 49.236553948 70.102291631 
4.2413630768 50.980450834 71.314188984 4.2413630768 50.287149847 69.581511559 4.2413630768 51.037386152 71.316156198 
4.2413630768 23.838082095 64.860847249 4.2413630768 23.260606035 63.530555325 4.2413630768 23.09937313 64.77721367 
4.2413630768 86.494069408 55.582282918 4.2413630768 82.219650853 57.20484101 4.2413630768 87.535978849 57.789692724 
4.2413630768 84.028900256 58.325527309 4.2413630768 19.901397294 62.352496192 4.2413630768 19.857029688 62.315230736 
4.2413630768 19.842382275 62.34257297 4.2413630768 5.6991237653 49.368147965 4.2413630768 6.9972331919 50.772326989 
4.2413630768 7.676407844 50.993426592 4.2413630768 19.772765172 62.283050454 4.2413630768 6.75908984 47.648946908 
4.2413630768 8.9180587467 48.930639559 4.2413630768 8.345655366 47.664630464 4.2413630768 138.07300136 66.853360722 
4.2413630768 141.19379495 71.266202087 4.2413630768 141.95516729 67.941703477 4.2413630768 8.2743658718 41.963641412 
4.2413630768 9.6603858196 46.24008437 4.2413630768 13.751232907 44.592201851 4.2413630768 9.1294370757 47.677074194 
4.2413630768 78.118283343 78.987296058 4.2413630768 77.904218849 78.304222262 4.2413630768 77.50330868 78.224729837 
4.2413630768 131.85062503 76.198494987 4.2413630768 132.36966576 75.90581304 4.2413630768 130.72652092 75.354976075 
4.2413630768 78.800969664 78.167037351 4.2413630768 79.243619322 77.59019766 4.2413630768 79.056889822 77.42689976 
4.2413630768 123.3260284 79.662924654 4.2413630768 124.07050037 80.920258604 4.2413630768 125.26381482 80.647628433 
4.2413630768 125.66468282 81.634796447 4.2413630768 142.33050261 93.307559135 4.2413630768 142.82540666 94.346923077 
4.2413630768 143.56803912 94.592715638 4.2413630768 10.467387969 58.137230627 4.2413630768 8.9723269239 56.518439132 
4.2413630768 89.816340174 82.194373937 4.2413630768 90.059523265 81.545672711 4.2413630768 89.81079303 81.607464063 
4.2413630768 99.493843857 79.561164117 4.2413630768 100.70722794 79.526143615 4.2413630768 99.280043237 78.365835232 
4.2413630768 19.916667002 62.184938722 4.2413630768 20.289630167 60.155074622 4.2413630768 18.922615054 61.190678637 
4.2413630768 115.29836242 81.644619787 4.2413630768 113.55445496 81.488841962 4.2413630768 115.03231618 82.511033506 
4.2413630768 43.817912389 60.415423397 4.2413630768 43.546716277 61.157662985 4.2413630768 44.859111378 60.599986267 
4.2413630768 44.769752901 61.404152778 4.2413630768 33.593701026 54.256645214 4.2413630768 35.885450718 53.786655783 
4.2413630768 34.298188002 49.912651553 4.2413630768 74.235328977 79.488715075 4.2413630768 74.426742696 79.593546167 
4.2413630768 74.226505296 79.195182907 4.2413630768 73.945255307 79.571307762 4.2413630768 74.105665523 79.93906539 
4.2413630768 69.915840149 78.242402008 4.2413630768 70.300173258 78.505425615 4.2413630768 69.99743748 77.986785312 
4.2413630768 154.0201804 97.43422626 4.2413630768 154.15086075 97.112088194 4.2413630768 153.77816109 97.385960893 
4.2413630768 34.439750349 69.022149969 4.2413630768 35.257355731 68.807713531 4.2413630768 34.474861186 67.694296171 
4.2413630768 15.088064426 43.028622241 4.2413630768 16.992927943 46.076717151 4.2413630768 77.906002089 75.210653653 
4.2413630768 79.816557192 74.194660408 4.2413630768 78.153307789 70.810160966 4.2413630768 141.49421893 65.971141156 
4.2413630768 145.64985682 67.239405622 4.2413630768 90.153071748 81.545930601 4.2413630768 90.198773352 81.697114754 
4.2413630768 90.226477807 81.597847927 4.2413630768 26.985453145 66.321642376 4.2413630768 27.598158707 66.523383832 
4.2413630768 26.623365112 65.00532388 4.2413630768 138.49844674 87.387348405 4.2413630768 138.48540354 87.324262552 
4.2413630768 138.45790861 87.35688348 4.2413630768 30.607195432 50.153771599 4.2413630768 114.88778091 85.086275138 
4.2413630768 115.22721834 86.217000672 4.2413630768 115.96258904 85.865814464 4.2413630768 89.548896505 82.62008009 
4.2413630768 89.582290136 82.576778522 4.2413630768 88.550117114 81.856291901 4.2413630768 88.563404944 82.172956613 
4.2413630768 20.045287316 39.943292574 4.2413630768 19.869350906 39.928189037 4.2413630768 19.974508373 39.99111858 
4.2413630768 16.13526847 54.070346668 4.2413630768 15.342725225 54.210850135 4.2413630768 15.759208979 55.562071618 
4.2413630768 63.719648915 70.477642678 4.2413630768 26.671777187 64.719890875 4.2413630768 26.479997765 64.862071003 
4.2413630768 131.72919782 90.694242512 4.2413630768 131.91583042 90.227091563 4.2413630768 131.06812421 90.383739278 
4.2413630768 131.03733019 90.500403264 4.2413630768 21.848885143 61.874719992 4.2413630768 21.90699554 62.154594248 
4.2413630768 13.021847435 48.086040964 4.2413630768 126.87780355 79.94578355 4.2413630768 24.410170836 48.100981482 
4.2413630768 21.95621168 50.825231983 4.2413630768 25.831909196 52.38320562 4.2413630768 136.11296985 90.01442972 
4.2413630768 137.58261092 90.835607224 4.2413630768 138.08491641 90.35060938 4.2413630768 153.26830021 92.20666844 
4.2413630768 152.90261824 92.953931842 4.2413630768 154.22887156 93.657671139 4.2413630768 66.297068376 74.838858143 
4.2413630768 67.525896431 75.086622498 4.2413630768 67.422040528 74.203873252 4.2413630768 52.006840581 69.709462184 
4.2413630768 22.118106314 64.215911669 4.2413630768 22.946230819 64.724128499 4.2413630768 22.417687676 63.409016986 
4.2413630768 28.51590466 51.967529837 4.2413630768 3.3359568784 59.400806069 4.2413630768 3.430899983 58.647156225 
4.2413630768 2.2922734026 59.496473147 4.2413630768 54.686676443 75.807194492 4.2413630768 55.128808926 75.932051047 
4.2413630768 55.255270373 75.605601364 4.2413630768 140.26722288 90.480208728 4.2413630768 139.93837494 90.36531658 
4.2413630768 140.29167177 90.681959 4.2413630768 36.389015115 69.572105441 4.2413630768 37.2101936 69.925767095 
4.2413630768 37.347196446 69.439100118 4.2413630768 36.407317895 69.66434462 4.2413630768 48.17594068 72.527846138 
4.2413630768 48.039614391 73.30727723 4.2413630768 48.933443438 74.275784618 4.2413630768 48.911732113 74.281614025 
4.2413630768 37.732010888 59.092268351 4.2413630768 37.479971034 57.573480316 4.2413630768 32.701931961 56.347910895 
4.2413630768 34.065827087 58.36595533 4.2413630768 5.7046588022 53.652073117 4.2413630768 6.5155671509 54.746744042 
4.2413630768 8.3212686073 53.654931618 4.2413630768 8.0134824177 54.141209737 4.2413630768 88.245550485 81.81823486 
4.2413630768 88.294942857 82.075963642 4.2413630768 47.816425681 71.139656841 4.2413630768 47.303720623 71.526624715 
4.2413630768 48.699574017 72.111394312 4.2413630768 16.840414762 57.179870719 4.2413630768 16.200376493 57.596116528 
4.2413630768 90.074406419 81.440939975 4.2413630768 121.90892892 83.558196751 4.2413630768 122.2157511 83.638692548 
4.2413630768 121.91994762 83.262205618 4.2413630768 6.2107317455 59.838836755 4.2413630768 6.7970070217 60.182643438 
4.2413630768 6.2215206338 58.767979089 4.2413630768 38.938532151 63.414071694 4.2413630768 39.338571365 63.655105565 
4.2413630768 39.265683488 63.194735703 4.2413630768 82.037050634 48.806907887 4.2413630768 80.514822378 51.541106732 
4.2413630768 149.5777731 89.972052084 4.2413630768 149.28394448 89.521455514 4.2413630768 149.14071182 92.103258618 
4.2413630768 148.86692967 91.830510435 4.2413630768 103.57164939 85.795428026 4.2413630768 103.69017343 85.67027355 
4.2413630768 103.4334589 84.980792679 4.2413630768 102.83678484 85.592873773 4.2413630768 74.846754476 78.572914752 
4.2413630768 75.116262373 78.761476909 4.2413630768 74.95722942 78.330856897 4.2413630768 95.783153995 78.886647332 
4.2413630768 95.920398636 78.33014347 4.2413630768 95.098269183 78.453703605 4.2413630768 85.271659936 76.809172966 
4.2413630768 84.117911276 76.745033405 4.2413630768 85.408270411 78.014719554 4.2413630768 40.84787234 71.158660813 
4.2413630768 40.214021294 70.604702096 4.2413630768 40.847780513 71.172445679 4.2413630768 40.334871025 70.960806556 
4.2413630768 136.09645863 87.708442255 4.2413630768 135.80840635 88.79101069 4.2413630768 130.54064039 88.876115958 
4.2413630768 96.11983607 70.565264766 4.2413630768 95.215886915 65.686111617 4.2413630768 95.269008995 69.950744936 
4.2413630768 48.671149345 70.174401152 4.2413630768 49.226687082 72.076134397 4.2413630768 61.5617785 66.931632662 
4.2413630768 47.769114202 68.051928428 4.2413630768 47.688418409 68.06606654 4.2413630768 77.589340069 61.461402524 
4.2413630768 80.139579588 58.713562356 4.2413630768 73.331505471 59.799203935 4.2413630768 12.921027756 58.675402882 
4.2413630768 77.817437934 75.142091557 4.2413630768 77.855298557 70.511632766 4.2413630768 112.17416362 60.171356338 
4.2413630768 105.43971834 54.654816778 4.2413630768 105.90632467 63.009104326 4.2413630768 126.15855213 88.723357066 
[...]
CELL_DATA 4723
SCALARS param double
LOOKUP_TABLE default
1 20 31 31 36 36 91 96 96 
102 102 158 160 177 177 211 250 250 
251 260 262 267 358 412 417 517 520 
570 600 600 601 620 620 654 698 732 
732 738 749 778 789 821 823 841 855 
864 873 928 969 1083 1083 1114 1120 1181 
1188 1266 1267 1318 1318 1334 1334 1339 1350 
1393 1429 1444 1444 1445 1445 1459 1459 1482 
1495 1514 1606 1661 1707 1831 1958 1967 1969 
1972 1975 1975 2008 2008 2025 2025 2026 2026 
2078 2080 2162 2162 2193 2238 2244 2304 2309 
2322 2322 2326 2326 2328 2328 2346 2353 2465 
2490 2490 2527 2527 2542 2596 2603 2603 2612 
2612 2675 2699 2699 2742 2756 2759 2759 2806 
2937 2937 3060 3071 3091 3125 3131 3191 3191 
3260 3260 3294 3328 3328 3385 3390 3421 3440 
3488 3543 3554 3554 3555 3599 3599 3623 3634 
3705 3713 3731 3746 3767 3803 3853 3876 4105 
4113 4125 4150 4150 4156 4191 4202 4202 4207 
4207 4254 4254 4273 4273 4278 4278 4291 4322 
4437 4443 4449 4449 4451 4451 4469 4489 4489 
4503 4586 4586 4669 4669 4724 4739 4748 4772 
4804 4804 4849 4849 4916 4944 4944 4972 4972 
5012 5020 5020 5053 5074 5074 5096 5134 5135 
5155 5196 5206 5277 5278 5278 5284 5331 5372 
5402 5416 5420 5434 5445 5532 5547 5550 5602 
5668 5668 5680 5712 5712 5721 5721 5763 5763 
5797 5901 5913 5913 5919 5931 5931 5943 5943 
6075 6089 6177 6183 6303 6327 6327 6332 6339 
6339 6362 6386 6386 6407 6422 6428 6433 6450 
6453 6453 6465 6465 6467 6471 6511 6528 6537 
6544 6544 6572 6621 6652 6652 6664 6716 6727 
6736 6743 6786 6787 6813 6823 6833 6840 6859 
6860 6897 6897 6962 6962 6973 7004 7004 7005 
7010 7020 7030 7095 7095 7120 7187 7197 7197 
7236 7250 7257 7281 7281 7283 7283 7346 7346 
7370 7370 7390 7390 7399 7399 7468 7468 7471 
7474 7488 7494 7494 7521 7562 7587 7590 7607 
7660 7682 7698 7698 7714 7726 7727 7727 7734 
7772 7890 7980 7984 8005 8005 8012 8012 8019 
8024 8074 8074 8076 8110 8110 8161 8195 8221 
8221 8240 8261 8261 8271 8278 8278 8312 8312 
8361 8393 8408 8408 8445 8452 8452 8527 8545 
8547 8568 8568 8653 8653 8690 8690 8700 8717 
8776 8776 8789 8789 8802 8820 8878 8996 9032 
9043 9064 9112 9112 9142 9182 9193 9227 9227 
9276 9276 9312 9348 9350 9353 9399 9418 9442 
9442 9465 9465 9468 9482 9535 9570 9579 9579 
9622 9622 9636 9692 9692 9745 9750 9849 9925 
9972 9996 10000 10000 10008 10008 10053 10054 10056 
10056 10068 10068 10074 10105 10118 10124 10150 10150 
10165 10165 10251 10273 10273 10279 10279 10292 10292 
10312 10360 10365 10382 10390 10398 10472 10507 10507 
10532 10554 10581 10586 10586 10605 10612 10612 10702 
10743 10747 10772 10793 10815 10815 10836 10885 10886 
10886 10895 10895 10904 10968 10990 10990 11009 11024 
11024 11027 11060 11086 11086 11088 11102 11201 11225 
11243 11252 11252 11287 11298 11298 11334 11359 11381 
11389 11394 11394 11406 11422 11531 11531 11563 11563 
11565 11565 11585 11585 11633 11633 11649 11651 11660 
11660 11668 11704 11752 11752 11782 11786 11792 11836 
11843 11843 11899 11901 11933 11962 11973 11978 11986 
11988 12051 12051 12128 12217 12224 12239 12240 12241 
12241 12257 12284 12284 12294 12350 12380 12394 12394 
12423 12427 12430 12492 12501 12502 12502 12580 12609 
12609 12619 12635 12637 12638 12638 12644 12644 12741 
12766 12818 12822 12830 12830 12836 12847 12847 12856 
12858 12904 12992 12992 13017 13058 13147 13200 13200 
13237 13274 13307 13348 13365 13365 13379 13383 13387 
13387 13389 13410 13419 13457 13505 13522 13566 13594 
13607 13607 13616 13624 13633 13638 13645 13650 13661 
13721 13743 13772 13798 13805 13855 13855 13881 13881 
13884 13884 13892 13909 13938 13995 13995 14144 14158 
14173 14196 14295 14295 14312 14344 14347 14354 14425 
14425 14467 14467 14476 14476 14479 14499 14565 14582 
14637 14637 14648 14658 14658 14694 14704 14714 14737 
14739 14759 14769 14820 14834 14835 14838 14838 14864 
14888 14907 14907 14923 14924 14924 14932 14932 14988 
15013 15017 15112 15127 15183 15189 15197 15216 15218 
15237 15303 15308 15325 15325 15380 15453 15479 15551 
15556 15641 15652 15656 15668 15696 15730 15754 15855 
15921 15936 15966 15999 16047 16047 16053 16053 16096 
16097 16097 16102 16125 16125 16143 16183 16194 16241 
16253 16253 16332 16447 16447 16456 16466 16466 16614 
16614 16635 16665 16744 16744 16796 16852 16852 16888 
16897 16897 16928 16928 16932 16934 16934 16943 17032 
17032 17074 17086 17102 17115 17163 17163 17169 17210 
17210 17212 17212 17257 17257 17351 17375 17415 17415 
17431 17534 17539 17539 17559 17567 17629 17647 17653 
17658 17658 17664 17775 17802 17848 17850 17850 17931 
17931 17952 17952 18070 18070 18094 18117 18124 18163 
18163 18173 18183 18197 18243 18244 18268 18275 18284 
18334 18395 18395 18422 18460 18460 18464 18480 18505 
18520 18562 18586 18590 18590 18621 18678 18707 18732 
18763 18778 18814 18823 18834 18841 18845 18845 18861 
18895 19003 19012 19012 19031 19063 19063 19077 19118 
19160 19244 19244 19304 19308 19308 19326 19347 19347 
19464 19464 19531 19531 19546 19546 19585 19627 19709 
19722 19733 19734 19734 19737 19742 19781 19899 19902 
19933 20046 20046 20098 20098 20115 20115 20156 20156 
20239 20239 20272 20314 20332 20333 20333 20338 20366 
20366 20391 20459 20513 20513 20527 20541 20541 20569 
20589 20589 20597 20698 20698 20700 20700 20726 20732 
20732 20755 20755 20773 20773 20781 20781 20795 20801 
20807 20833 20877 20890 20900 20900 20904 20904 20947 
20947 21177 21228 21268 21268 21307 21310 21431 21433 
21433 21505 21518 21518 21568 21568 21570 21603 21610 
21614 21623 21783 21828 21861 21924 21924 21931 21998 
22003 22003 22033 22033 22063 22064 22089 22089 22149 
22206 22206 22235 22279 22279 22352 22367 22392 22441 
22453 22460 22629 22691 22722 22739 22771 22771 22788 
22788 22794 22794 22805 22816 22844 22853 22853 22866 
22873 22991 22994 22994 23012 23012 23057 23138 23138 
23206 23207 23237 23263 23272 23355 23355 23406 23499 
23499 23523 23523 23567 23572 23577 23578 23578 23594 
23609 23611 23689 23703 23732 23736 23738 23748 23785 
23813 23813 23826 23848 23848 23849 23854 23854 23958 
23962 23995 24002 24002 24015 24015 24018 24031 24054 
24206 24208 24208 24216 24221 24243 24266 24291 24326 
24344 24366 24366 24437 24462 24487 24553 24553 24577 
24577 24634 24649 24674 24679 24679 24691 24691 24794 
24800 24826 24841 24843 24848 24851 24851 24853 24860 
24860 24945 24961 25010 25034 25034 25036 25046 25068 
25079 25089 25132 25132 25199 25256 25278 25311 25311 
25411 25411 25429 25432 25436 25440 25456 25466 25477 
25477 25483 25485 25526 25533 25546 25551 25551 25574 
25574 25633 25637 25688 25688 25707 25743 25768 25768 
25823 25851 25851 25914 25943 26018 26072 26080 26101 
26177 26252 26308 26316 26353 26389 26389 26425 26489 
26536 26607 26619 26619 26646 26650 26675 26686 26703 
26741 26756 26777 26778 26778 26796 26796 26812 26925 
26925 26937 26961 27008 27017 27017 27052 27052 27082 
27082 27090 27097 27162 27172 27172 27178 27181 27245 
27270 27274 27276 27276 27307 27328 27346 27385 27385 
27459 27459 27525 27553 27553 27570 27648 27648 27652 
27652 27662 27702 27717 27829 27829 27882 28051 28051 
28118 28130 28155 28155 28170 28185 28227 28227 28232 
28246 28246 28269 28290 28300 28313 28333 28334 28336 
28356 28374 28384 28397 28456 28530 28534 28543 28552 
28566 28613 28613 28664 28681 28707 28707 28751 28776 
28833 28833 28839 28839 28857 28857 28868 28868 28881 
28883 28909 28909 28953 28953 28989 28989 28990 29056 
29056 29089 29089 29102 29130 29134 29134 29150 29168 
29192 29192 29198 29198 29200 29286 29286 29317 29327 
29327 29333 29333 29347 29347 29389 29407 29491 29504 
29507 29507 29571 29585 29585 29599 29631 29673 29673 
29706 29714 29757 29757 29760 29764 29786 29816 29824 
29833 29833 29846 29869 29887 29898 29914 29918 29958 
29980 29988 29992 30008 30013 30031 30049 30093 30148 
30148 30214 30214 30258 30258 30266 30266 30270 30282 
30282 30351 30352 30371 30375 30401 30442 30498 30513 
30609 30626 30634 30651 30682 30720 30745 30745 30772 
30774 30801 30808 30808 30845 30913 30934 30975 31035 
31045 31059 31090 31109 31109 31160 31184 31210 31221 
31243 31255 31361 31400 31441 31441 31467 31467 31499 
31499 31508 31578 31583 31591 31633 31633 31635 31654 
31654 31667 31763 31779 31798 31798 31827 31827 31861 
31880 31880 31930 31940 31943 32062 32115 32115 32116 
32124 32124 32158 32158 32171 32175 32179 32212 32223 
32223 32241 32241 32278 32278 32292 32295 32298 32361 
32363 32386 32392 32422 32422 32471 32471 32513 32513 
32536 32538 32603 32641 32646 32646 32670 32670 32702 
32717 32717 32802 32817 32829 32847 32896 32927 32976 
32976 32979 33094 33126 33126 33191 33238 33255 33255 
33312 33312 33314 33333 33370 33382 33393 33399 33400 
33402 33425 33441 33441 33471 33476 33479 33487 33493 
33543 33549 33576 33576 33630 33654 33681 33721 33723 
33739 33765 33769 33784 33792 33792 33809 33809 33895 
33900 33924 33924 33966 34012 34033 34078 34109 34110 
34131 34147 34147 34168 34168 34187 34187 34208 34208 
34313 34313 34394 34425 34426 34426 34453 34522 34522 
34531 34563 34580 34606 34607 34654 34668 34680 34721 
34721 34771 34790 34790 34854 34862 34890 34890 34956 
34969 35066 35071 35071 35085 35128 35131 35131 35133 
35133 35147 35150 35174 35220 35220 35268 35301 35301 
35365 35365 35447 35447 35478 35478 35510 35510 35547 
35630 35630 35686 35729 35730 35764 35781 35781 35795 
35803 35803 35811 35863 35871 35876 35939 35939 35947 
35984 36032 36041 36101 36115 36124 36124 36130 36149 
36149 36201 36220 36239 36252 36252 36253 36261 36291 
36303 36326 36326 36395 36395 36430 36512 36526 36535 
36535 36563 36563 36608 36608 36708 36708 36738 36739 
36792 36831 36831 36834 36849 36857 36857 36874 36874 
36920 36920 36951 36951 36967 36990 36990 37047 37047 
37085 37085 37098 37196 37212 37278 37278 37291 37308 
37308 37327 37339 37419 37453 37453 37459 37459 37474 
37474 37476 37480 37570 37597 37597 37617 37617 37623 
37623 37648 37656 37672 37672 37679 37679 37692 37756 
37769 37769 37772 37799 37822 37871 37893 37894 37894 
37899 37902 37921 37921 37952 37973 37992 38040 38054 
38066 38109 38109 38122 38122 38139 38146 38146 38166 
38190 38190 38215 38244 38244 38250 38250 38268 38271 
38311 38379 38412 38412 38413 38454 38485 38485 38498 
38509 38509 38539 38607 38607 38613 38667 38708 38759 
38786 38791 38859 38930 38950 38950 38980 38987 38989 
38989 39021 39021 39094 39103 39103 39189 39234 39234 
39285 39324 39324 39395 39403 39410 39410 39420 39482 
39524 39525 39591 39591 39602 39612 39619 39619 39667 
39667 39699 39723 39744 39744 39761 39892 39920 39962 
40006 40022 40051 40069 40100 40100 40107 40116 40116 
40126 40155 40160 40160 40174 40174 40205 40205 40213 
40213 40241 40274 40296 40303 40320 40365 40420 40453 
40453 40454 40547 40547 40554 40562 40562 40606 40606 
40615 40615 40624 40626 40626 40676 40691 40727 40759 
40766 40766 40805 40812 40822 40869 40879 40897 40911 
40922 40922 40970 40971 41006 41017 41033 41044 41044 
41046 41097 41129 41152 41241 41241 41248 41256 41257 
41397 41397 41399 41426 41426 41433 41454 41493 41517 
41523 41561 41570 41570 41606 41679 41679 41722 41754 
41803 41820 41820 41821 41821 41883 41893 41958 42022 
42022 42023 42028 42033 42034 42034 42038 42038 42040 
42073 42102 42106 42114 42114 42131 42164 42164 42177 
42188 42188 42214 42236 42239 42260 42272 42272 42279 
42283 42283 42303 42303 42320 42320 42370 42412 42445 
42445 42484 42517 42552 42552 42563 42568 42630 42634 
42645 42755 42757 42775 42801 42804 42820 42858 42954 
42954 42991 42991 42999 43123 43158 43190 43200 43211 
43226 43226 43389 43389 43426 43513 43532 43532 43552 
43572 43682 43682 43734 43776 43777 43777 43785 43785 
43805 43820 43839 43901 43906 43914 43924 43949 43955 
44001 44001 44024 44056 44056 44078 44078 44104 44104 
44129 44129 44161 44165 44179 44202 44211 44211 44230 
44323 44371 44393 44393 44427 44427 44496 44496 44498 
44523 44526 44526 44573 44573 44602 44625 44625 44681 
44683 44683 44693 44766 44771 44771 44781 44817 44846 
44866 44866 44887 44910 44913 44914 44914 44923 44999 
45069 45069 45073 45119 45219 45219 45250 45325 45326 
45366 45402 45402 45450 45450 45473 45473 45480 45480 
45545 45616 45622 45622 45740 45811 45869 45885 45900 
45900 45902 45902 45976 46015 46068 46112 46118 46190 
46245 46245 46317 46332 46367 46416 46525 46525 46535 
46556 46559 46559 46565 46565 46595 46602 46638 46648 
46673 46696 46698 46760 46760 46767 46796 46800 46851 
46860 46886 46902 46902 46908 46917 46917 46928 46950 
47007 47143 47156 47174 47199 47199 47243 47263 47282 
47282 47285 47293 47293 47306 47336 47358 47368 47383 
47383 47420 47432 47434 47434 47441 47449 47458 47458 
47472 47472 47529 47536 47536 47583 47583 47610 47610 
47665 47753 47764 47788 47788 47810 47826 47836 47866 
47866 47878 47917 47924 47924 47926 47988 48052 48091 
48103 48103 48146 48146 48156 48156 48169 48169 48204 
48204 48234 48260 48280 48280 48289 48338 48339 48343 
48382 48386 48445 48449 48472 48472 48476 48476 48500 
48500 48509 48547 48565 48565 48574 48589 48589 48665 
48674 48674 48681 48693 48706 48707 48707 48791 48795 
48813 48874 48874 48886 48894 48894 48909 48909 48948 
48966 48966 48969 49064 49070 49080 49080 49125 49125 
49126 49126 49132 49132 49150 49182 49184 49341 49407 
49563 49664 49665 49704 49730 49732 49743 49812 49812 
49818 49852 49924 49941 49948 49948 49967 49972 49972 
49978 49985 49987 50040 50090 50109 50113 50122 50122 
50137 50137 50156 50184 50320 50342 50359 50404 50414 
50473 50473 50492 50497 50507 50507 50544 50554 50554 
50610 50617 50627 50678 50698 50723 50723 50773 50805 
50821 50822 50869 50917 51007 51057 51188 51221 51280 
51280 51283 51326 51326 51334 51352 51399 51451 51488 
51496 51505 51550 51644 51785 51816 51824 51824 51847 
51847 51858 51957 51980 52099 52104 52104 52165 52176 
52218 52218 52235 52235 52271 52289 52289 52359 52377 
52386 52386 52423 52423 52451 52492 52516 52516 52520 
52544 52574 52584 52600 52710 52721 52721 52742 52742 
52762 52815 52815 52827 52827 52829 52886 52886 52892 
53003 53013 53013 53063 53082 53083 53114 53122 53138 
53138 53147 53163 53195 53195 53207 53228 53228 53305 
53332 53376 53391 53394 53441 53472 53557 53557 53600 
53641 53646 53646 53655 53658 53703 53703 53718 53802 
53845 53866 53880 53923 53934 53934 53957 54003 54030 
54030 54040 54090 54127 54229 54229 54284 54284 54285 
54285 54291 54291 54293 54341 54356 54364 54425 54459 
54525 54525 54603 54606 54606 54619 54629 54682 54769 
54792 54802 54808 54832 54847 54847 55050 55084 55094 
55095 55134 55168 55178 55217 55240 55268 55295 55310 
55310 55332 55332 55350 55350 55373 55418 55466 55466 
55468 55468 55500 55523 55572 55578 55586 55598 55645 
55686 55686 55693 55695 55695 55750 55764 55769 55778 
55805 55891 55941 55964 55983 56033 56082 56083 56083 
56102 56102 56104 56104 56109 56121 56155 56155 56208 
56221 56221 56265 56265 56272 56285 56287 56342 56359 
56359 56362 56410 56478 56483 56483 56489 56497 56498 
56550 56550 56560 56560 56595 56600 56600 56608 56611 
56630 56666 56666 56726 56726 56792 56792 56800 56804 
56839 56907 56929 56929 56987 57028 57119 57119 57211 
57284 57344 57380 57382 57389 57389 57404 57404 57453 
57457 57497 57530 57549 57549 57623 57669 57669 57694 
57703 57703 57706 57809 57809 57810 57810 57838 57838 
57849 57887 57891 57922 57969 57993 57993 58011 58095 
58101 58101 58105 58105 58106 58118 58155 58155 58162 
58172 58205 58268 58271 58271 58280 58280 58291 58335 
58335 58343 58363 58371 58371 58452 58454 58455 58489 
58489 58498 58519 58547 58573 58653 58655 58763 58765 
58790 58808 58809 58827 58831 58840 58840 58887 58887 
58927 58989 59081 59113 59113 59129 59148 59154 59177 
59191 59193 59193 59273 59284 59285 59285 59326 59432 
59486 59486 59543 59555 59565 59565 59644 59677 59756 
59804 59813 59820 59820 59848 59858 59874 59876 59945 
59945 59998 60032 60066 60066 60067 60154 60157 60195 
60249 60249 60262 60262 60277 60277 60319 60343 60343 
60421 60428 60436 60484 60574 60589 60589 60621 60648 
60682 60790 60811 60811 60881 60910 60910 60924 60929 
60936 60974 61063 61063 61123 61136 61136 61161 61175 
61220 61220 61237 61237 61274 61291 61291 61300 61309 
61309 61333 61333 61455 61469 61535 61535 61570 61635 
61657 61697 61697 61701 61701 61728 61766 61789 61799 
61800 61802 61802 61819 61865 61871 61872 61872 61891 
61891 61899 61899 61903 61985 61999 62008 62094 62094 
62095 62095 62199 62223 62297 62297 62306 62306 62334 
62363 62435 62490 62490 62502 62502 62511 62538 62538 
62550 62550 62585 62589 62659 62659 62748 62767 62778 
62778 62850 62888 62888 62890 62930 62930 62955 62989 
63005 63053 63067 63120 63133 63156 63179 63188 63188 
63244 63248 63248 63263 63263 63279 63279 63314 63340 
63340 63359 63382 63382 63386 63427 63437 63457 63460 
63460 63469 63469 63528 63528 63533 63549 63549 63571 
63599 63599 63610 63610 63663 63663 63668 63708 63756 
63756 63757 63757 63770 63772 63807 63843 63844 63902 
63968 64046 64080 64082 64082 64127 64158 64283 64283 
64289 64289 64355 64355 64375 64376 64376 64456 64476 
64476 64513 64586 64586 64647 64650 64756 64756 64764 
64764 64778 64803 64815 64845 64912 64912 64992 64992 
65152 65152 65204 65204 65263 65263 65268 65268 65306 
65383 65383 65443 65464 65464 65470 65545 65545 65560 
65560 65565 65565 65583 65613 65621 65625 65625 65694 
65694 65736 65748 65748 65809 65841 65841 65858 65917 
65917 65945 65945 65948 65948 65974 65974 66022 66022 
66046 66046 66061 66069 66139 66154 66180 66180 66259 
66259 66280 66283 66302 66302 66319 66401 66401 66428 
66428 66451 66463 66487 66487 66491 66500 66500 66509 
66509 66561 66561 66569 66579 66591 66630 66635 66635 
66636 66636 66678 66689 66689 66718 66722 66722 66727 
66746 66747 66747 66763 66785 66788 66788 66832 66839 
66839 66886 66886 66892 66892 66911 66954 66961 67008 
67021 67043 67043 67048 67065 67065 67131 67150 67159 
67159 67184 67188 67190 67207 67207 67213 67216 67220 
67246 67309 67309 67364 67364 67367 67395 67395 67416 
67422 67429 67433 67442 67442 67462 67462 67465 67505 
67505 67522 67678 67679 67700 67746 67776 67786 67786 
67838 67901 67936 67955 68004 68040 68059 68059 68070 
68090 68090 68110 68110 68124 68124 68181 68181 68207 
68248 68304 68335 68390 68394 68417 68440 68445 68445 
68511 68526 68543 68555 68563 68597 68623 68717 68722 
68734 68749 68758 68788 68788 68822 68830 68848 68898 
68973 68973 68983 69018 69018 69033 69033 69041 69126 
69148 69151 69155 69155 69183 69216 69231 69231 69247 
69260 69268 69371 69399 69449 69494 69494 69495 69495 
69535 69616 69616 69641 69645 69690 69690 69793 69793 
69854 69901 69948 69952 69952 69990 70012 70012 70051 
70086 70123 70126 70187 70197 70240 70270 70270 70298 
70306 70306 70360 70367 70367 70369 70369 70394 70394 
70408 70408 70425 70465 70477 70477 70488 70501 70503 
70503 70557 70567 70567 70595 70637 70637 70699 70708 
70708 70755 70758 70763 70789 70809 70813 70853 70910 
70939 70939 70960 70979 71008 71008 71143 71158 71158 
71230 71237 71278 71341 71341 71500 71541 71573 71593 
71636 71647 71677 71677 71694 71694 71702 71718 71725 
71741 71790 71803 71819 71868 71905 71910 71964 72043 
72050 72050 72090 72096 72096 72183 72253 72253 72291 
72291 72324 72408 72410 72410 72424 72427 72489 72489 
72571 72680 72690 72705 72714 72742 72800 72829 72874 
72885 72888 72915 72956 72965 72965 72995 72995 73013 
73040 73068 73070 73070 73164 73195 73217 73238 73238 
73295 73296 73304 73304 73306 73309 73309 73314 73346 
73346 73358 73410 73435 73469 73500 73511 73511 73528 
73546 73555 73621 73718 73718 73748 73748 73808 73809 
73853 73861 73861 73870 73877 73907 73907 73946 73949 
73965 73983 73987 73994 73997 74048 74048 74080 74080 
74093 74093 74153 74188 74225 74303 74310 74318 74318 
74364 74374 74374 74415 74459 74459 74466 74466 74468 
74493 74561 74567 74587 74587 74623 74628 74628 74629 
74629 74638 74697 74701 74799 74847 74886 74886 74887 
74889 74901 74901 74908 74908 74960 74970 74998 74998 
75036 75046 75064 75096 75096 75151 75151 75152 75152 